file 29363161 1743601221                                        
version 3
run General-0-20250402-12:35:24-11032
attr configname General
attr datetime 20250402-12:35:24
attr datetimef 20250402-123524
attr experiment General
attr inifile omnetpp.ini
attr iterationvars ""
attr iterationvarsd ""
attr iterationvarsf ""
attr measurement ""
attr network RSVPTE4
attr processid 11032
attr repetition 0
attr replication #0
attr resultdir results
attr runnumber 0
attr seedset 0
config image-path ../../../images
config network RSVPTE4
config sim-time-limit 50s
config total-stack 64MiB
config **.host{1..2,5}.numApps 1
config **.host{1..2,5}.app[*].typename UdpBasicApp
config **.host{1..2,5}.app[0].localPort 100
config **.host{1..2,5}.app[0].destPort 100
config **.host{1..2,5}.app[0].messageLength "128 bytes"
config **.host{1..2,5}.app[0].sendInterval 0.01s
config **.host{1..2,5}.app[0].destAddresses "\"host3\""
config **.host3.numApps 1
config **.host3.app[0].typename UdpSink
config **.host3.app[0].localPort 100
config **.host1.ipv4.routingTable.routingFile "\"host1.rt\""
config **.host2.ipv4.routingTable.routingFile "\"host2.rt\""
config **.host3.ipv4.routingTable.routingFile "\"host3.rt\""
config **.host4.ipv4.routingTable.routingFile "\"host4.rt\""
config **.host5.ipv4.routingTable.routingFile "\"host5.rt\""
config **.LSR1.classifier.config "xmldoc(\"LSR1_fec.xml\")"
config **.LSR1.rsvp.traffic "xmldoc(\"LSR1_rsvp.xml\")"
config **.LSR*.rsvp.helloInterval 0.2s
config **.LSR*.rsvp.helloTimeout 0.5s
config **.LSR1.ipv4.routingTable.routingFile "\"LSR1.rt\""
config **.LSR2.ipv4.routingTable.routingFile "\"LSR2.rt\""
config **.LSR3.ipv4.routingTable.routingFile "\"LSR3.rt\""
config **.LSR4.ipv4.routingTable.routingFile "\"LSR4.rt\""
config **.LSR5.ipv4.routingTable.routingFile "\"LSR5.rt\""
config **.LSR6.ipv4.routingTable.routingFile "\"LSR6.rt\""
config **.LSR7.ipv4.routingTable.routingFile "\"LSR7.rt\""
config **.ppp[*].queue.typename DropTailQueue
config **.ppp[*].queue.packetCapacity 10
config **.scenarioManager.script "xml(\"<scenario/>\")"

vector 0 RSVPTE4.LSR1.ipv4.ip packetDropAddressResolutionFailed:vector(packetBytes) ETV
attr interpolationmode none
attr recordingmode vector(packetBytes)
attr source packetDropReasonIsAddressResolutionFailed(packetDropped)
attr title "packet drop: address resolution failed, packetBytes"
vector 1 RSVPTE4.LSR1.ipv4.ip packetDropHopLimitReached:vector(packetBytes) ETV
attr interpolationmode none
attr recordingmode vector(packetBytes)
attr source packetDropReasonIsHopLimitReached(packetDropped)
attr title "packet drop: hop limit reached, packetBytes"
vector 2 RSVPTE4.LSR1.ipv4.ip packetDropForwardingDisabled:vector(packetBytes) ETV
attr interpolationmode none
attr recordingmode vector(packetBytes)
attr source packetDropReasonIsForwardingDisabled(packetDropped)
attr title "packet drop: forwarding disabled, packetBytes"
vector 3 RSVPTE4.LSR1.ipv4.ip packetDropNoInterfaceFound:vector(packetBytes) ETV
attr interpolationmode none
attr recordingmode vector(packetBytes)
attr source packetDropReasonIsNoInterfaceFound(packetDropped)
attr title "packet drop: no interface found, packetBytes"
vector 4 RSVPTE4.LSR1.ipv4.ip packetDropNoRouteFound:vector(packetBytes) ETV
attr interpolationmode none
attr recordingmode vector(packetBytes)
attr source packetDropReasonIsNoRouteFound(packetDropped)
attr title "packet drop: no route found, packetBytes"
vector 5 RSVPTE4.LSR1.ipv4.ip packetDropUndefined:vector(packetBytes) ETV
attr interpolationmode none
attr recordingmode vector(packetBytes)
attr source packetDropReasonIsUndefined(packetDropped)
attr title "packet drop: undefined, packetBytes"
vector 6 RSVPTE4.LSR1.ipv4.arp arpRequestSent:vector(packetBytes) ETV
attr recordingmode vector(packetBytes)
attr source arpRequestSent
attr title "ARP request sent, packetBytes"
vector 7 RSVPTE4.LSR1.ipv4.arp arpReplySent:vector(packetBytes) ETV
attr recordingmode vector(packetBytes)
attr source arpReplySent
attr title "ARP replies sent, packetBytes"
vector 8 RSVPTE4.LSR1.lo[0].lo rcvdPkFromHl:vector(packetBytes) ETV
attr interpolationmode none
attr recordingmode vector(packetBytes)
attr source packetReceivedFromUpper
attr title "packets received from higher layer, packetBytes"
vector 9 RSVPTE4.LSR1.lo[0].lo passedUpPk:vector(packetBytes) ETV
attr interpolationmode none
attr recordingmode vector(packetBytes)
attr source packetSentToUpper
attr title "packets passed to higher layer, packetBytes"
vector 10 RSVPTE4.LSR1.lo[0] packetDropInterfaceDown:vector(packetBytes) ETV
attr interpolationmode none
attr recordingmode vector(packetBytes)
attr source packetDropReasonIsInterfaceDown(packetDropped)
attr title "packet drops: interface down, packetBytes"
vector 11 RSVPTE4.LSR1.lo[0] packetDropNoCarrier:vector(packetBytes) ETV
attr interpolationmode none
attr recordingmode vector(packetBytes)
attr source packetDropReasonIsNoCarrier(packetDropped)
attr title "packet drops: no carrier, packetBytes"
vector 12 RSVPTE4.LSR1.ppp[0].queue queueLength:vector ETV
attr autoWarmupFilter false
attr interpolationmode sample-hold
attr recordingmode vector
attr source "warmup(atomic(constant0(packetPushEnded) + count(packetPushStarted) - count(packetPulled) - count(packetRemoved) - count(packetDropped)))"
attr title "queue length"
attr unit pk
vector 13 RSVPTE4.LSR1.ppp[0].queue queueBitLength:vector ETV
attr autoWarmupFilter false
attr interpolationmode sample-hold
attr recordingmode vector
attr source "warmup(atomic(constant0(packetPushEnded) + sum(packetLength(packetPushStarted)) - sum(packetLength(packetPulled)) - sum(packetLength(packetRemoved)) - sum(packetLength(packetDropped))))"
attr title "queue bit length"
attr unit b
vector 14 RSVPTE4.LSR1.ppp[0].queue queueingTime:vector ETV
attr interpolationmode none
attr recordingmode vector
attr source queueingTime(packetPulled)
attr title "queueing times"
attr unit s
vector 15 RSVPTE4.LSR1.ppp[0].queue incomingPacketLengths:vector ETV
attr interpolationmode none
attr recordingmode vector
attr source packetLength(packetPushStarted)
attr title "incoming packet lengths"
attr unit b
vector 16 RSVPTE4.LSR1.ppp[0].queue incomingDataRate:vector ETV
attr interpolationmode linear
attr recordingmode vector
attr source throughput(packetPushStarted)
attr title "incoming datarate"
attr unit bps
vector 17 RSVPTE4.LSR1.ppp[0].queue outgoingPacketLengths:vector ETV
attr interpolationmode none
attr recordingmode vector
attr source packetLength(packetPulled)
attr title "outgoing packet lengths"
attr unit b
vector 18 RSVPTE4.LSR1.ppp[0].queue outgoingDataRate:vector ETV
attr interpolationmode linear
attr recordingmode vector
attr source throughput(packetPulled)
attr title "outgoing datarate"
attr unit bps
vector 19 RSVPTE4.LSR1.ppp[0].queue droppedPacketLengthsQueueOverflow:vector ETV
attr interpolationmode none
attr recordingmode vector
attr source packetLength(packetDropReasonIsQueueOverflow(packetDropped))
attr title "dropped packet lengths: queue overflow"
attr unit b
vector 20 RSVPTE4.LSR1.ppp[0].queue flowQueueingTime:vector ETV
attr interpolationmode none
attr recordingmode vector
attr source queueingTime(demuxFlow(packetPulled))
attr title "flow queueing times"
attr unit s
vector 21 RSVPTE4.LSR1.ppp[0].queue flowIncomingDataRate:vector ETV
attr interpolationmode linear
attr recordingmode vector
attr source throughput(flowPacketLength(demuxFlow(packetPushStarted)))
attr title "flow specific incoming data rate"
attr unit bps
vector 22 RSVPTE4.LSR1.ppp[0].queue flowOutgoingDataRate:vector ETV
attr interpolationmode linear
attr recordingmode vector
attr source throughput(flowPacketLength(demuxFlow(packetPulled)))
attr title "flow specific outgoing data rate"
attr unit bps
vector 23 RSVPTE4.LSR1.ppp[0].ppp transmissionState:vector ETV
attr interpolationmode sample-hold
attr recordingmode vector
attr source transmissionStateChanged
attr title "tx state"
vector 24 RSVPTE4.LSR1.ppp[0].ppp txPk:vector(packetBytes) ETV
attr interpolationmode none
attr recordingmode vector(packetBytes)
attr source packetSentToLower
attr title "packets transmitted, packetBytes"
vector 25 RSVPTE4.LSR1.ppp[0].ppp rxPkOk:vector(packetBytes) ETV
attr interpolationmode none
attr recordingmode vector(packetBytes)
attr source rxPkOk
attr title "packets received OK, packetBytes"
vector 26 RSVPTE4.LSR1.ppp[0].ppp packetDropIncorrectlyReceived:vector(packetBytes) ETV
attr interpolationmode none
attr recordingmode vector(packetBytes)
attr source packetDropReasonIsIncorrectlyReceived(packetDropped)
attr title "packet drop: incorrectly received, packetBytes"
vector 27 RSVPTE4.LSR1.ppp[0].ppp packetDropInterfaceDown:vector(packetBytes) ETV
attr interpolationmode none
attr recordingmode vector(packetBytes)
attr source packetDropReasonIsInterfaceDown(packetDropped)
attr title "packet drop: interface down, packetBytes"
vector 28 RSVPTE4.LSR1.ppp[0].ppp rcvdPkFromHl:vector(packetBytes) ETV
attr interpolationmode none
attr recordingmode vector(packetBytes)
attr source packetReceivedFromUpper
attr title "packets received from higher layer, packetBytes"
vector 29 RSVPTE4.LSR1.ppp[0].ppp passedUpPk:vector(packetBytes) ETV
attr interpolationmode none
attr recordingmode vector(packetBytes)
attr source packetSentToUpper
attr title "packets passed to higher layer, packetBytes"
vector 30 RSVPTE4.LSR1.ppp[0] packetDropInterfaceDown:vector(packetBytes) ETV
attr interpolationmode none
attr recordingmode vector(packetBytes)
attr source packetDropReasonIsInterfaceDown(packetDropped)
attr title "packet drops: interface down, packetBytes"
vector 31 RSVPTE4.LSR1.ppp[0] packetDropNoCarrier:vector(packetBytes) ETV
attr interpolationmode none
attr recordingmode vector(packetBytes)
attr source packetDropReasonIsNoCarrier(packetDropped)
attr title "packet drops: no carrier, packetBytes"
vector 32 RSVPTE4.LSR1.ppp[1].queue queueLength:vector ETV
attr autoWarmupFilter false
attr interpolationmode sample-hold
attr recordingmode vector
attr source "warmup(atomic(constant0(packetPushEnded) + count(packetPushStarted) - count(packetPulled) - count(packetRemoved) - count(packetDropped)))"
attr title "queue length"
attr unit pk
vector 33 RSVPTE4.LSR1.ppp[1].queue queueBitLength:vector ETV
attr autoWarmupFilter false
attr interpolationmode sample-hold
attr recordingmode vector
attr source "warmup(atomic(constant0(packetPushEnded) + sum(packetLength(packetPushStarted)) - sum(packetLength(packetPulled)) - sum(packetLength(packetRemoved)) - sum(packetLength(packetDropped))))"
attr title "queue bit length"
attr unit b
vector 34 RSVPTE4.LSR1.ppp[1].queue queueingTime:vector ETV
attr interpolationmode none
attr recordingmode vector
attr source queueingTime(packetPulled)
attr title "queueing times"
attr unit s
vector 35 RSVPTE4.LSR1.ppp[1].queue incomingPacketLengths:vector ETV
attr interpolationmode none
attr recordingmode vector
attr source packetLength(packetPushStarted)
attr title "incoming packet lengths"
attr unit b
vector 36 RSVPTE4.LSR1.ppp[1].queue incomingDataRate:vector ETV
attr interpolationmode linear
attr recordingmode vector
attr source throughput(packetPushStarted)
attr title "incoming datarate"
attr unit bps
vector 37 RSVPTE4.LSR1.ppp[1].queue outgoingPacketLengths:vector ETV
attr interpolationmode none
attr recordingmode vector
attr source packetLength(packetPulled)
attr title "outgoing packet lengths"
attr unit b
vector 38 RSVPTE4.LSR1.ppp[1].queue outgoingDataRate:vector ETV
attr interpolationmode linear
attr recordingmode vector
attr source throughput(packetPulled)
attr title "outgoing datarate"
attr unit bps
vector 39 RSVPTE4.LSR1.ppp[1].queue droppedPacketLengthsQueueOverflow:vector ETV
attr interpolationmode none
attr recordingmode vector
attr source packetLength(packetDropReasonIsQueueOverflow(packetDropped))
attr title "dropped packet lengths: queue overflow"
attr unit b
vector 40 RSVPTE4.LSR1.ppp[1].queue flowQueueingTime:vector ETV
attr interpolationmode none
attr recordingmode vector
attr source queueingTime(demuxFlow(packetPulled))
attr title "flow queueing times"
attr unit s
vector 41 RSVPTE4.LSR1.ppp[1].queue flowIncomingDataRate:vector ETV
attr interpolationmode linear
attr recordingmode vector
attr source throughput(flowPacketLength(demuxFlow(packetPushStarted)))
attr title "flow specific incoming data rate"
attr unit bps
vector 42 RSVPTE4.LSR1.ppp[1].queue flowOutgoingDataRate:vector ETV
attr interpolationmode linear
attr recordingmode vector
attr source throughput(flowPacketLength(demuxFlow(packetPulled)))
attr title "flow specific outgoing data rate"
attr unit bps
vector 43 RSVPTE4.LSR1.ppp[1].ppp transmissionState:vector ETV
attr interpolationmode sample-hold
attr recordingmode vector
attr source transmissionStateChanged
attr title "tx state"
vector 44 RSVPTE4.LSR1.ppp[1].ppp txPk:vector(packetBytes) ETV
attr interpolationmode none
attr recordingmode vector(packetBytes)
attr source packetSentToLower
attr title "packets transmitted, packetBytes"
vector 45 RSVPTE4.LSR1.ppp[1].ppp rxPkOk:vector(packetBytes) ETV
attr interpolationmode none
attr recordingmode vector(packetBytes)
attr source rxPkOk
attr title "packets received OK, packetBytes"
vector 46 RSVPTE4.LSR1.ppp[1].ppp packetDropIncorrectlyReceived:vector(packetBytes) ETV
attr interpolationmode none
attr recordingmode vector(packetBytes)
attr source packetDropReasonIsIncorrectlyReceived(packetDropped)
attr title "packet drop: incorrectly received, packetBytes"
vector 47 RSVPTE4.LSR1.ppp[1].ppp packetDropInterfaceDown:vector(packetBytes) ETV
attr interpolationmode none
attr recordingmode vector(packetBytes)
attr source packetDropReasonIsInterfaceDown(packetDropped)
attr title "packet drop: interface down, packetBytes"
vector 48 RSVPTE4.LSR1.ppp[1].ppp rcvdPkFromHl:vector(packetBytes) ETV
attr interpolationmode none
attr recordingmode vector(packetBytes)
attr source packetReceivedFromUpper
attr title "packets received from higher layer, packetBytes"
vector 49 RSVPTE4.LSR1.ppp[1].ppp passedUpPk:vector(packetBytes) ETV
attr interpolationmode none
attr recordingmode vector(packetBytes)
attr source packetSentToUpper
attr title "packets passed to higher layer, packetBytes"
vector 50 RSVPTE4.LSR1.ppp[1] packetDropInterfaceDown:vector(packetBytes) ETV
attr interpolationmode none
attr recordingmode vector(packetBytes)
attr source packetDropReasonIsInterfaceDown(packetDropped)
attr title "packet drops: interface down, packetBytes"
vector 51 RSVPTE4.LSR1.ppp[1] packetDropNoCarrier:vector(packetBytes) ETV
attr interpolationmode none
attr recordingmode vector(packetBytes)
attr source packetDropReasonIsNoCarrier(packetDropped)
attr title "packet drops: no carrier, packetBytes"
vector 52 RSVPTE4.LSR1.ppp[2].queue queueLength:vector ETV
attr autoWarmupFilter false
attr interpolationmode sample-hold
attr recordingmode vector
attr source "warmup(atomic(constant0(packetPushEnded) + count(packetPushStarted) - count(packetPulled) - count(packetRemoved) - count(packetDropped)))"
attr title "queue length"
attr unit pk
vector 53 RSVPTE4.LSR1.ppp[2].queue queueBitLength:vector ETV
attr autoWarmupFilter false
attr interpolationmode sample-hold
attr recordingmode vector
attr source "warmup(atomic(constant0(packetPushEnded) + sum(packetLength(packetPushStarted)) - sum(packetLength(packetPulled)) - sum(packetLength(packetRemoved)) - sum(packetLength(packetDropped))))"
attr title "queue bit length"
attr unit b
vector 54 RSVPTE4.LSR1.ppp[2].queue queueingTime:vector ETV
attr interpolationmode none
attr recordingmode vector
attr source queueingTime(packetPulled)
attr title "queueing times"
attr unit s
vector 55 RSVPTE4.LSR1.ppp[2].queue incomingPacketLengths:vector ETV
attr interpolationmode none
attr recordingmode vector
attr source packetLength(packetPushStarted)
attr title "incoming packet lengths"
attr unit b
vector 56 RSVPTE4.LSR1.ppp[2].queue incomingDataRate:vector ETV
attr interpolationmode linear
attr recordingmode vector
attr source throughput(packetPushStarted)
attr title "incoming datarate"
attr unit bps
vector 57 RSVPTE4.LSR1.ppp[2].queue outgoingPacketLengths:vector ETV
attr interpolationmode none
attr recordingmode vector
attr source packetLength(packetPulled)
attr title "outgoing packet lengths"
attr unit b
vector 58 RSVPTE4.LSR1.ppp[2].queue outgoingDataRate:vector ETV
attr interpolationmode linear
attr recordingmode vector
attr source throughput(packetPulled)
attr title "outgoing datarate"
attr unit bps
vector 59 RSVPTE4.LSR1.ppp[2].queue droppedPacketLengthsQueueOverflow:vector ETV
attr interpolationmode none
attr recordingmode vector
attr source packetLength(packetDropReasonIsQueueOverflow(packetDropped))
attr title "dropped packet lengths: queue overflow"
attr unit b
vector 60 RSVPTE4.LSR1.ppp[2].queue flowQueueingTime:vector ETV
attr interpolationmode none
attr recordingmode vector
attr source queueingTime(demuxFlow(packetPulled))
attr title "flow queueing times"
attr unit s
vector 61 RSVPTE4.LSR1.ppp[2].queue flowIncomingDataRate:vector ETV
attr interpolationmode linear
attr recordingmode vector
attr source throughput(flowPacketLength(demuxFlow(packetPushStarted)))
attr title "flow specific incoming data rate"
attr unit bps
vector 62 RSVPTE4.LSR1.ppp[2].queue flowOutgoingDataRate:vector ETV
attr interpolationmode linear
attr recordingmode vector
attr source throughput(flowPacketLength(demuxFlow(packetPulled)))
attr title "flow specific outgoing data rate"
attr unit bps
vector 63 RSVPTE4.LSR1.ppp[2].ppp transmissionState:vector ETV
attr interpolationmode sample-hold
attr recordingmode vector
attr source transmissionStateChanged
attr title "tx state"
vector 64 RSVPTE4.LSR1.ppp[2].ppp txPk:vector(packetBytes) ETV
attr interpolationmode none
attr recordingmode vector(packetBytes)
attr source packetSentToLower
attr title "packets transmitted, packetBytes"
vector 65 RSVPTE4.LSR1.ppp[2].ppp rxPkOk:vector(packetBytes) ETV
attr interpolationmode none
attr recordingmode vector(packetBytes)
attr source rxPkOk
attr title "packets received OK, packetBytes"
vector 66 RSVPTE4.LSR1.ppp[2].ppp packetDropIncorrectlyReceived:vector(packetBytes) ETV
attr interpolationmode none
attr recordingmode vector(packetBytes)
attr source packetDropReasonIsIncorrectlyReceived(packetDropped)
attr title "packet drop: incorrectly received, packetBytes"
vector 67 RSVPTE4.LSR1.ppp[2].ppp packetDropInterfaceDown:vector(packetBytes) ETV
attr interpolationmode none
attr recordingmode vector(packetBytes)
attr source packetDropReasonIsInterfaceDown(packetDropped)
attr title "packet drop: interface down, packetBytes"
vector 68 RSVPTE4.LSR1.ppp[2].ppp rcvdPkFromHl:vector(packetBytes) ETV
attr interpolationmode none
attr recordingmode vector(packetBytes)
attr source packetReceivedFromUpper
attr title "packets received from higher layer, packetBytes"
vector 69 RSVPTE4.LSR1.ppp[2].ppp passedUpPk:vector(packetBytes) ETV
attr interpolationmode none
attr recordingmode vector(packetBytes)
attr source packetSentToUpper
attr title "packets passed to higher layer, packetBytes"
vector 70 RSVPTE4.LSR1.ppp[2] packetDropInterfaceDown:vector(packetBytes) ETV
attr interpolationmode none
attr recordingmode vector(packetBytes)
attr source packetDropReasonIsInterfaceDown(packetDropped)
attr title "packet drops: interface down, packetBytes"
vector 71 RSVPTE4.LSR1.ppp[2] packetDropNoCarrier:vector(packetBytes) ETV
attr interpolationmode none
attr recordingmode vector(packetBytes)
attr source packetDropReasonIsNoCarrier(packetDropped)
attr title "packet drops: no carrier, packetBytes"
vector 72 RSVPTE4.LSR1.ppp[3].queue queueLength:vector ETV
attr autoWarmupFilter false
attr interpolationmode sample-hold
attr recordingmode vector
attr source "warmup(atomic(constant0(packetPushEnded) + count(packetPushStarted) - count(packetPulled) - count(packetRemoved) - count(packetDropped)))"
attr title "queue length"
attr unit pk
vector 73 RSVPTE4.LSR1.ppp[3].queue queueBitLength:vector ETV
attr autoWarmupFilter false
attr interpolationmode sample-hold
attr recordingmode vector
attr source "warmup(atomic(constant0(packetPushEnded) + sum(packetLength(packetPushStarted)) - sum(packetLength(packetPulled)) - sum(packetLength(packetRemoved)) - sum(packetLength(packetDropped))))"
attr title "queue bit length"
attr unit b
vector 74 RSVPTE4.LSR1.ppp[3].queue queueingTime:vector ETV
attr interpolationmode none
attr recordingmode vector
attr source queueingTime(packetPulled)
attr title "queueing times"
attr unit s
vector 75 RSVPTE4.LSR1.ppp[3].queue incomingPacketLengths:vector ETV
attr interpolationmode none
attr recordingmode vector
attr source packetLength(packetPushStarted)
attr title "incoming packet lengths"
attr unit b
vector 76 RSVPTE4.LSR1.ppp[3].queue incomingDataRate:vector ETV
attr interpolationmode linear
attr recordingmode vector
attr source throughput(packetPushStarted)
attr title "incoming datarate"
attr unit bps
vector 77 RSVPTE4.LSR1.ppp[3].queue outgoingPacketLengths:vector ETV
attr interpolationmode none
attr recordingmode vector
attr source packetLength(packetPulled)
attr title "outgoing packet lengths"
attr unit b
vector 78 RSVPTE4.LSR1.ppp[3].queue outgoingDataRate:vector ETV
attr interpolationmode linear
attr recordingmode vector
attr source throughput(packetPulled)
attr title "outgoing datarate"
attr unit bps
vector 79 RSVPTE4.LSR1.ppp[3].queue droppedPacketLengthsQueueOverflow:vector ETV
attr interpolationmode none
attr recordingmode vector
attr source packetLength(packetDropReasonIsQueueOverflow(packetDropped))
attr title "dropped packet lengths: queue overflow"
attr unit b
vector 80 RSVPTE4.LSR1.ppp[3].queue flowQueueingTime:vector ETV
attr interpolationmode none
attr recordingmode vector
attr source queueingTime(demuxFlow(packetPulled))
attr title "flow queueing times"
attr unit s
vector 81 RSVPTE4.LSR1.ppp[3].queue flowIncomingDataRate:vector ETV
attr interpolationmode linear
attr recordingmode vector
attr source throughput(flowPacketLength(demuxFlow(packetPushStarted)))
attr title "flow specific incoming data rate"
attr unit bps
vector 82 RSVPTE4.LSR1.ppp[3].queue flowOutgoingDataRate:vector ETV
attr interpolationmode linear
attr recordingmode vector
attr source throughput(flowPacketLength(demuxFlow(packetPulled)))
attr title "flow specific outgoing data rate"
attr unit bps
vector 83 RSVPTE4.LSR1.ppp[3].ppp transmissionState:vector ETV
attr interpolationmode sample-hold
attr recordingmode vector
attr source transmissionStateChanged
attr title "tx state"
vector 84 RSVPTE4.LSR1.ppp[3].ppp txPk:vector(packetBytes) ETV
attr interpolationmode none
attr recordingmode vector(packetBytes)
attr source packetSentToLower
attr title "packets transmitted, packetBytes"
vector 85 RSVPTE4.LSR1.ppp[3].ppp rxPkOk:vector(packetBytes) ETV
attr interpolationmode none
attr recordingmode vector(packetBytes)
attr source rxPkOk
attr title "packets received OK, packetBytes"
vector 86 RSVPTE4.LSR1.ppp[3].ppp packetDropIncorrectlyReceived:vector(packetBytes) ETV
attr interpolationmode none
attr recordingmode vector(packetBytes)
attr source packetDropReasonIsIncorrectlyReceived(packetDropped)
attr title "packet drop: incorrectly received, packetBytes"
vector 87 RSVPTE4.LSR1.ppp[3].ppp packetDropInterfaceDown:vector(packetBytes) ETV
attr interpolationmode none
attr recordingmode vector(packetBytes)
attr source packetDropReasonIsInterfaceDown(packetDropped)
attr title "packet drop: interface down, packetBytes"
vector 88 RSVPTE4.LSR1.ppp[3].ppp rcvdPkFromHl:vector(packetBytes) ETV
attr interpolationmode none
attr recordingmode vector(packetBytes)
attr source packetReceivedFromUpper
attr title "packets received from higher layer, packetBytes"
vector 89 RSVPTE4.LSR1.ppp[3].ppp passedUpPk:vector(packetBytes) ETV
attr interpolationmode none
attr recordingmode vector(packetBytes)
attr source packetSentToUpper
attr title "packets passed to higher layer, packetBytes"
vector 90 RSVPTE4.LSR1.ppp[3] packetDropInterfaceDown:vector(packetBytes) ETV
attr interpolationmode none
attr recordingmode vector(packetBytes)
attr source packetDropReasonIsInterfaceDown(packetDropped)
attr title "packet drops: interface down, packetBytes"
vector 91 RSVPTE4.LSR1.ppp[3] packetDropNoCarrier:vector(packetBytes) ETV
attr interpolationmode none
attr recordingmode vector(packetBytes)
attr source packetDropReasonIsNoCarrier(packetDropped)
attr title "packet drops: no carrier, packetBytes"
vector 92 RSVPTE4.LSR1.ppp[4].queue queueLength:vector ETV
attr autoWarmupFilter false
attr interpolationmode sample-hold
attr recordingmode vector
attr source "warmup(atomic(constant0(packetPushEnded) + count(packetPushStarted) - count(packetPulled) - count(packetRemoved) - count(packetDropped)))"
attr title "queue length"
attr unit pk
vector 93 RSVPTE4.LSR1.ppp[4].queue queueBitLength:vector ETV
attr autoWarmupFilter false
attr interpolationmode sample-hold
attr recordingmode vector
attr source "warmup(atomic(constant0(packetPushEnded) + sum(packetLength(packetPushStarted)) - sum(packetLength(packetPulled)) - sum(packetLength(packetRemoved)) - sum(packetLength(packetDropped))))"
attr title "queue bit length"
attr unit b
vector 94 RSVPTE4.LSR1.ppp[4].queue queueingTime:vector ETV
attr interpolationmode none
attr recordingmode vector
attr source queueingTime(packetPulled)
attr title "queueing times"
attr unit s
vector 95 RSVPTE4.LSR1.ppp[4].queue incomingPacketLengths:vector ETV
attr interpolationmode none
attr recordingmode vector
attr source packetLength(packetPushStarted)
attr title "incoming packet lengths"
attr unit b
vector 96 RSVPTE4.LSR1.ppp[4].queue incomingDataRate:vector ETV
attr interpolationmode linear
attr recordingmode vector
attr source throughput(packetPushStarted)
attr title "incoming datarate"
attr unit bps
vector 97 RSVPTE4.LSR1.ppp[4].queue outgoingPacketLengths:vector ETV
attr interpolationmode none
attr recordingmode vector
attr source packetLength(packetPulled)
attr title "outgoing packet lengths"
attr unit b
vector 98 RSVPTE4.LSR1.ppp[4].queue outgoingDataRate:vector ETV
attr interpolationmode linear
attr recordingmode vector
attr source throughput(packetPulled)
attr title "outgoing datarate"
attr unit bps
vector 99 RSVPTE4.LSR1.ppp[4].queue droppedPacketLengthsQueueOverflow:vector ETV
attr interpolationmode none
attr recordingmode vector
attr source packetLength(packetDropReasonIsQueueOverflow(packetDropped))
attr title "dropped packet lengths: queue overflow"
attr unit b
vector 100 RSVPTE4.LSR1.ppp[4].queue flowQueueingTime:vector ETV
attr interpolationmode none
attr recordingmode vector
attr source queueingTime(demuxFlow(packetPulled))
attr title "flow queueing times"
attr unit s
vector 101 RSVPTE4.LSR1.ppp[4].queue flowIncomingDataRate:vector ETV
attr interpolationmode linear
attr recordingmode vector
attr source throughput(flowPacketLength(demuxFlow(packetPushStarted)))
attr title "flow specific incoming data rate"
attr unit bps
vector 102 RSVPTE4.LSR1.ppp[4].queue flowOutgoingDataRate:vector ETV
attr interpolationmode linear
attr recordingmode vector
attr source throughput(flowPacketLength(demuxFlow(packetPulled)))
attr title "flow specific outgoing data rate"
attr unit bps
vector 103 RSVPTE4.LSR1.ppp[4].ppp transmissionState:vector ETV
attr interpolationmode sample-hold
attr recordingmode vector
attr source transmissionStateChanged
attr title "tx state"
vector 104 RSVPTE4.LSR1.ppp[4].ppp txPk:vector(packetBytes) ETV
attr interpolationmode none
attr recordingmode vector(packetBytes)
attr source packetSentToLower
attr title "packets transmitted, packetBytes"
vector 105 RSVPTE4.LSR1.ppp[4].ppp rxPkOk:vector(packetBytes) ETV
attr interpolationmode none
attr recordingmode vector(packetBytes)
attr source rxPkOk
attr title "packets received OK, packetBytes"
vector 106 RSVPTE4.LSR1.ppp[4].ppp packetDropIncorrectlyReceived:vector(packetBytes) ETV
attr interpolationmode none
attr recordingmode vector(packetBytes)
attr source packetDropReasonIsIncorrectlyReceived(packetDropped)
attr title "packet drop: incorrectly received, packetBytes"
vector 107 RSVPTE4.LSR1.ppp[4].ppp packetDropInterfaceDown:vector(packetBytes) ETV
attr interpolationmode none
attr recordingmode vector(packetBytes)
attr source packetDropReasonIsInterfaceDown(packetDropped)
attr title "packet drop: interface down, packetBytes"
vector 108 RSVPTE4.LSR1.ppp[4].ppp rcvdPkFromHl:vector(packetBytes) ETV
attr interpolationmode none
attr recordingmode vector(packetBytes)
attr source packetReceivedFromUpper
attr title "packets received from higher layer, packetBytes"
vector 109 RSVPTE4.LSR1.ppp[4].ppp passedUpPk:vector(packetBytes) ETV
attr interpolationmode none
attr recordingmode vector(packetBytes)
attr source packetSentToUpper
attr title "packets passed to higher layer, packetBytes"
vector 110 RSVPTE4.LSR1.ppp[4] packetDropInterfaceDown:vector(packetBytes) ETV
attr interpolationmode none
attr recordingmode vector(packetBytes)
attr source packetDropReasonIsInterfaceDown(packetDropped)
attr title "packet drops: interface down, packetBytes"
vector 111 RSVPTE4.LSR1.ppp[4] packetDropNoCarrier:vector(packetBytes) ETV
attr interpolationmode none
attr recordingmode vector(packetBytes)
attr source packetDropReasonIsNoCarrier(packetDropped)
attr title "packet drops: no carrier, packetBytes"
vector 112 RSVPTE4.LSR2.ipv4.ip packetDropAddressResolutionFailed:vector(packetBytes) ETV
attr interpolationmode none
attr recordingmode vector(packetBytes)
attr source packetDropReasonIsAddressResolutionFailed(packetDropped)
attr title "packet drop: address resolution failed, packetBytes"
vector 113 RSVPTE4.LSR2.ipv4.ip packetDropHopLimitReached:vector(packetBytes) ETV
attr interpolationmode none
attr recordingmode vector(packetBytes)
attr source packetDropReasonIsHopLimitReached(packetDropped)
attr title "packet drop: hop limit reached, packetBytes"
vector 114 RSVPTE4.LSR2.ipv4.ip packetDropForwardingDisabled:vector(packetBytes) ETV
attr interpolationmode none
attr recordingmode vector(packetBytes)
attr source packetDropReasonIsForwardingDisabled(packetDropped)