file 29165980 1741953906                                        
version 3
run General-0-20250314-12:04:13-11848
attr configname General
attr datetime 20250314-12:04:13
attr datetimef 20250314-120413
attr experiment General
attr inifile omnetpp.ini
attr iterationvars ""
attr iterationvarsd ""
attr iterationvarsf ""
attr measurement ""
attr network RSVPTE4
attr processid 11848
attr repetition 0
attr replication #0
attr resultdir results
attr runnumber 0
attr seedset 0
config image-path ../../../images
config network RSVPTE4
config sim-time-limit 50s
config total-stack 64MiB
config **.host{1..2,5}.numApps 1
config **.host{1..2,5}.app[*].typename UdpBasicApp
config **.host{1..2,5}.app[0].localPort 100
config **.host{1..2,5}.app[0].destPort 100
config **.host{1..2,5}.app[0].messageLength "128 bytes"
config **.host{1..2,5}.app[0].sendInterval 0.01s
config **.host{1..2,5}.app[0].destAddresses "\"host3\""
config **.host3.numApps 1
config **.host3.app[0].typename UdpSink
config **.host3.app[0].localPort 100
config **.host1.ipv4.routingTable.routingFile "\"host1.rt\""
config **.host2.ipv4.routingTable.routingFile "\"host2.rt\""
config **.host3.ipv4.routingTable.routingFile "\"host3.rt\""
config **.host4.ipv4.routingTable.routingFile "\"host4.rt\""
config **.host5.ipv4.routingTable.routingFile "\"host5.rt\""
config **.LSR1.classifier.config "xmldoc(\"LSR1_fec.xml\")"
config **.LSR1.rsvp.traffic "xmldoc(\"LSR1_rsvp.xml\")"
config **.LSR*.rsvp.helloInterval 0.2s
config **.LSR*.rsvp.helloTimeout 0.5s
config **.LSR1.ipv4.routingTable.routingFile "\"LSR1.rt\""
config **.LSR2.ipv4.routingTable.routingFile "\"LSR2.rt\""
config **.LSR3.ipv4.routingTable.routingFile "\"LSR3.rt\""
config **.LSR4.ipv4.routingTable.routingFile "\"LSR4.rt\""
config **.LSR5.ipv4.routingTable.routingFile "\"LSR5.rt\""
config **.LSR6.ipv4.routingTable.routingFile "\"LSR6.rt\""
config **.LSR7.ipv4.routingTable.routingFile "\"LSR7.rt\""
config **.ppp[*].queue.typename DropTailQueue
config **.ppp[*].queue.packetCapacity 10
config **.scenarioManager.script "xml(\"<scenario/>\")"

vector 4 RSVPTE4.LSR1.ipv4.ip packetDropNoRouteFound:vector(packetBytes) ETV
attr interpolationmode none
attr recordingmode vector(packetBytes)
attr source packetDropReasonIsNoRouteFound(packetDropped)
attr title "packet drop: no route found, packetBytes"
4	186411 234 301 715 0.022173333333 0.042173333333 9 156 156 1404 219024
vector 12 RSVPTE4.LSR1.ppp[0].queue queueLength:vector ETV
attr autoWarmupFilter false
attr interpolationmode sample-hold
attr recordingmode vector
attr source "warmup(atomic(constant0(packetPushEnded) + count(packetPushStarted) - count(packetPulled) - count(packetRemoved) - count(packetDropped)))"
attr title "queue length"
attr unit pk
12	186645 29178 0 30610 0 2.9944 1158 0 4 693 1029
12	1926090 200492 30662 242887 3.000017959627 28.4244 7782 0 3 2598 2658
12	16447560 173958 242948 422878 28.432173333333 49.9944 6598 0 3 2201 2249
vector 13 RSVPTE4.LSR1.ppp[0].queue queueBitLength:vector ETV
attr autoWarmupFilter false
attr interpolationmode sample-hold
attr recordingmode vector
attr source "warmup(atomic(constant0(packetPushEnded) + sum(packetLength(packetPushStarted)) - sum(packetLength(packetPulled)) - sum(packetLength(packetRemoved)) - sum(packetLength(packetDropped))))"
attr title "queue bit length"
attr unit b
13	215823 30793 0 30610 0 2.9944 1158 0 5056 845888 1516364160
13	2126582 208201 30662 242887 3.000017959627 28.4244 7782 0 2728 3299600 4257204480
13	16621518 180493 242948 422878 28.432173333333 49.9944 6598 0 2728 2796608 3606631424
vector 14 RSVPTE4.LSR1.ppp[0].queue queueingTime:vector ETV
attr interpolationmode none
attr recordingmode vector
attr source queueingTime(packetPulled)
attr title "queueing times"
attr unit s
14	246616 23411 52 30610 0.007958745046 2.9944 732 0 0.007969375454 1.165025828722 0.0036887538555943
14	2334783 161133 30662 242887 3.000017959627 28.4244 5224 0 0.003746666667 5.7025902027112 0.012734110601344
14	16802011 139278 242948 422878 28.432173333333 49.9944 4429 0 0.003746666667 4.8350614955432 0.010795144730146
vector 15 RSVPTE4.LSR1.ppp[0].queue incomingPacketLengths:vector ETV
attr interpolationmode none
attr recordingmode vector
attr source packetLength(packetPushStarted)
attr title "incoming packet lengths"
attr unit b
15	270027 21629 52 30597 0.007958745046 2.992173333333 732 168 8224 909456 1205670912
15	2495916 163757 30662 242874 3.000017959627 28.422173333333 5224 168 1280 6540984 8345355072
15	16941289 141509 242948 422865 28.432173333333 49.992173333333 4429 168 1280 5547416 7078149568
vector 16 RSVPTE4.LSR1.ppp[0].queue incomingDataRate:vector ETV
attr interpolationmode linear
attr recordingmode vector
attr source throughput(packetPushStarted)
attr title "incoming datarate"
attr unit bps
16	291656 869 5417 29925 0.312173333333 2.912173333333 27 -3661.1454493508 394880 7599538.8545506 2298722165586
16	2659673 8517 30778 242794 3.012173333333 28.412173333333 255 256000 276480 65589040 16872352787200
16	17082798 7340 243603 422927 28.512173333333 50 216 256000 276480 55557294.902079 14291567549649
vector 17 RSVPTE4.LSR1.ppp[0].queue outgoingPacketLengths:vector ETV
attr interpolationmode none
attr recordingmode vector
attr source packetLength(packetPulled)
attr title "outgoing packet lengths"
attr unit b
17	292525 20115 52 30610 0.007958745046 2.9944 732 168 8224 909456 1205670912
17	2668190 143448 30662 242887 3.000017959627 28.4244 5224 168 1280 6540984 8345355072
17	17090138 124281 242948 422878 28.432173333333 49.9944 4429 168 1280 5547416 7078149568
vector 18 RSVPTE4.LSR1.ppp[0].queue outgoingDataRate:vector ETV
attr interpolationmode linear
attr recordingmode vector
attr source throughput(packetPulled)
attr title "outgoing datarate"
attr unit bps
18	312640 869 5431 29939 0.314346666666 2.914346666666 27 -3661.3764889391 394880 7612338.6235111 2307871556077.8
18	2811638 8517 30792 242808 3.014346666666 28.414346666666 255 256000 276480 65589040 16872352787200
18	17214419 7339 243617 422927 28.514346666666 50 216 254047.3225385 276480 55549007.322539 14287287990889
vector 23 RSVPTE4.LSR1.ppp[0].ppp transmissionState:vector ETV
attr interpolationmode sample-hold
attr recordingmode vector
attr source transmissionStateChanged
attr title "tx state"
23	313509 35928 0 30632 0 2.996626666667 1465 0 1 732 732
23	2820155 255770 30662 242899 3.000017959627 28.426626666667 10448 0 1 5224 5224
23	17221758 222167 242948 422900 28.432173333333 49.996626666667 8858 0 1 4429 4429
vector 24 RSVPTE4.LSR1.ppp[0].ppp txPk:vector(packetBytes) ETV
attr interpolationmode none
attr recordingmode vector(packetBytes)
attr source packetSentToLower
attr title "packets transmitted, packetBytes"
24	349437 19386 52 30610 0.007958745046 2.9944 732 28 1035 118806 20466024
24	3075925 138234 30662 242887 3.000017959627 28.4244 5224 28 167 854191 142098871
24	17443925 119860 242948 422878 28.432173333333 49.9944 4429 28 167 724430 120521086
vector 25 RSVPTE4.LSR1.ppp[0].ppp rxPkOk:vector(packetBytes) ETV
attr interpolationmode none
attr recordingmode vector(packetBytes)
attr source rxPkOk
attr title "packets received OK, packetBytes"
25	368823 1226 468 29095 0.031331281637 2.810458744363 46 28 1323 5663 2517053
25	3214159 4057 30757 242773 3.010458744363 28.410458744363 138 28 34 3924 111912
25	17563785 3450 244435 421363 28.610458744363 49.810458744363 115 28 34 3268 93136
vector 28 RSVPTE4.LSR1.ppp[0].ppp rcvdPkFromHl:vector(packetBytes) ETV
attr interpolationmode none
attr recordingmode vector(packetBytes)
attr source packetReceivedFromUpper
attr title "packets received from higher layer, packetBytes"
28	370049 19386 52 30610 0.007958745046 2.9944 732 21 1028 113682 18838608
28	3218216 138234 30662 242887 3.000017959627 28.4244 5224 21 160 817623 130396173
28	17567235 119860 242948 422878 28.432173333333 49.9944 4429 21 160 693427 110596087
vector 29 RSVPTE4.LSR1.ppp[0].ppp passedUpPk:vector(packetBytes) ETV
attr interpolationmode none
attr recordingmode vector(packetBytes)
attr source packetSentToUpper
attr title "packets passed to higher layer, packetBytes"
29	389435 1226 468 29095 0.031331281637 2.810458744363 46 21 1316 5341 2440025
29	3356450 4057 30757 242773 3.010458744363 28.410458744363 138 21 27 2958 63738
29	17687095 3450 244435 421363 28.610458744363 49.810458744363 115 21 27 2463 53019
vector 32 RSVPTE4.LSR1.ppp[1].queue queueLength:vector ETV
attr autoWarmupFilter false
attr interpolationmode sample-hold
attr recordingmode vector
attr source "warmup(atomic(constant0(packetPushEnded) + count(packetPushStarted) - count(packetPulled) - count(packetRemoved) - count(packetDropped)))"
attr title "queue length"
attr unit pk
32	390661 6369 0 30598 0 2.992173333333 242 0 2 13 17
32	3360507 75901 30697 242875 3.002173333333 28.422173333333 2675 0 0 0 0
32	17690545 65749 242950 422866 28.432173333333 49.992173333333 2269 0 0 0 0
vector 33 RSVPTE4.LSR1.ppp[1].queue queueBitLength:vector ETV
attr autoWarmupFilter false
attr interpolationmode sample-hold
attr recordingmode vector
attr source "warmup(atomic(constant0(packetPushEnded) + sum(packetLength(packetPushStarted)) - sum(packetLength(packetPulled)) - sum(packetLength(packetRemoved)) - sum(packetLength(packetDropped))))"
attr title "queue bit length"
attr unit b
33	397030 6398 0 30598 0 2.992173333333 242 0 9376 22152 110033472
33	3436408 75901 30697 242875 3.002173333333 28.422173333333 2675 0 0 0 0
33	17756294 65749 242950 422866 28.432173333333 49.992173333333 2269 0 0 0 0
vector 34 RSVPTE4.LSR1.ppp[1].queue queueingTime:vector ETV
attr interpolationmode none
attr recordingmode vector
attr source queueingTime(packetPulled)
attr title "queueing times"
attr unit s
34	403428 6185 53 30598 0.007958745046 2.992173333333 228 0 0.0138 0.022717297077 0.00020248844922851
34	3512309 75901 30697 242875 3.002173333333 28.422173333333 2675 0 0 0 0
34	17822043 65749 242950 422866 28.432173333333 49.992173333333 2269 0 0 0 0
vector 35 RSVPTE4.LSR1.ppp[1].queue incomingPacketLengths:vector ETV
attr interpolationmode none
attr recordingmode vector
attr source packetLength(packetPushStarted)
attr title "incoming packet lengths"
attr unit b
35	409613 6760 53 30598 0.007958745046 2.992173333333 228 168 9376 280024 437915072
35	3588210 83794 30697 242875 3.002173333333 28.422173333333 2675 168 1280 3281176 4174643648
35	17887792 72444 242950 422866 28.432173333333 49.992173333333 2269 168 1280 2782944 3540763392
vector 36 RSVPTE4.LSR1.ppp[1].queue incomingDataRate:vector ETV
attr interpolationmode linear
attr recordingmode vector
attr source throughput(packetPushStarted)
attr title "incoming datarate"
attr unit bps
36	416373 426 20472 30444 1.772173333333 2.972173333333 13 -3724.9770175442 129680 1529555.0229825 196106329853.78
36	3672004 8483 31244 242460 3.072173333333 28.372173333333 254 128000 137600 32773360 4229263404800
36	17960236 7374 243260 422927 28.472173333333 50 217 128000 137997.12505824 28005837.125058 3614939705724.3
vector 37 RSVPTE4.LSR1.ppp[1].queue outgoingPacketLengths:vector ETV
attr interpolationmode none
attr recordingmode vector
attr source packetLength(packetPulled)
attr title "outgoing packet lengths"
attr unit b
37	416799 6745 53 30598 0.007958745046 2.992173333333 228 168 9376 280024 437915072
37	3680487 83794 30697 242875 3.002173333333 28.422173333333 2675 168 1280 3281176 4174643648
37	17967610 72444 242950 422866 28.432173333333 49.992173333333 2269 168 1280 2782944 3540763392
vector 38 RSVPTE4.LSR1.ppp[1].queue outgoingDataRate:vector ETV
attr interpolationmode linear
attr recordingmode vector
attr source throughput(packetPulled)
attr title "outgoing datarate"
attr unit bps
38	423544 426 20472 30444 1.772173333333 2.972173333333 13 -3724.9770175442 129680 1529555.0229825 196106329853.78
38	3764281 8483 31244 242460 3.072173333333 28.372173333333 254 128000 137600 32773360 4229263404800
38	18040054 7374 243260 422927 28.472173333333 50 217 128000 137997.12505824 28005837.125058 3614939705724.3
vector 43 RSVPTE4.LSR1.ppp[1].ppp transmissionState:vector ETV
attr interpolationmode sample-hold
attr recordingmode vector
attr source transmissionStateChanged
attr title "tx state"
43	423970 10631 0 30611 0 2.9944 457 0 1 228 228
43	3772764 131142 30697 242888 3.002173333333 28.4244 5350 0 1 2675 2675
43	18047428 113970 242950 422879 28.432173333333 49.9944 4538 0 1 2269 2269
vector 44 RSVPTE4.LSR1.ppp[1].ppp txPk:vector(packetBytes) ETV
attr interpolationmode none
attr recordingmode vector(packetBytes)
attr source packetSentToLower
attr title "packets transmitted, packetBytes"
44	434601 6519 53 30598 0.007958745046 2.992173333333 228 28 1179 36599 7343637
44	3903906 81124 30697 242875 3.002173333333 28.422173333333 2675 28 167 428872 71101940
44	18161398 70179 242950 422866 28.432173333333 49.992173333333 2269 28 167 363751 60305761
vector 45 RSVPTE4.LSR1.ppp[1].ppp rxPkOk:vector(packetBytes) ETV
attr interpolationmode none
attr recordingmode vector(packetBytes)
attr source rxPkOk
attr title "packets received OK, packetBytes"
45	441120 1209 285 29947 0.021331281637 2.915583030667 45 28 819 5485 1896409
45	3985030 3881 31609 241963 3.115583030667 28.315583030667 132 28 34 3726 105348
45	18231577 3360 243625 422215 28.515583030667 49.915583030667 112 28 34 3160 89296
vector 48 RSVPTE4.LSR1.ppp[1].ppp rcvdPkFromHl:vector(packetBytes) ETV
attr interpolationmode none
attr recordingmode vector(packetBytes)
attr source packetReceivedFromUpper
attr title "packets received from higher layer, packetBytes"
48	442329 6519 53 30598 0.007958745046 2.992173333333 228 21 1172 35003 6842423
48	3988911 81124 30697 242875 3.002173333333 28.422173333333 2675 21 160 410147 65228807
48	18234937 70179 242950 422866 28.432173333333 49.992173333333 2269 21 160 347868 55324428
vector 49 RSVPTE4.LSR1.ppp[1].ppp passedUpPk:vector(packetBytes) ETV
attr interpolationmode none
attr recordingmode vector(packetBytes)
attr source packetSentToUpper
attr title "packets passed to higher layer, packetBytes"
49	448848 1209 285 29947 0.021331281637 2.915583030667 45 21 812 5170 1821824
49	4070035 3881 31609 241963 3.115583030667 28.315583030667 132 21 27 2802 59652
49	18305116 3360 243625 422215 28.515583030667 49.915583030667 112 21 27 2376 50544
vector 52 RSVPTE4.LSR1.ppp[2].queue queueLength:vector ETV
attr autoWarmupFilter false
attr interpolationmode sample-hold
attr recordingmode vector
attr source "warmup(atomic(constant0(packetPushEnded) + count(packetPushStarted) - count(packetPulled) - count(packetRemoved) - count(packetDropped)))"
attr title "queue length"
attr unit pk
52	450057 125 0 723 0 0.042173333333 8 0 0 0 0
vector 53 RSVPTE4.LSR1.ppp[2].queue queueBitLength:vector ETV
attr autoWarmupFilter false
attr interpolationmode sample-hold
attr recordingmode vector
attr source "warmup(atomic(constant0(packetPushEnded) + sum(packetLength(packetPushStarted)) - sum(packetLength(packetPulled)) - sum(packetLength(packetRemoved)) - sum(packetLength(packetDropped))))"
attr title "queue bit length"
attr unit b
53	450182 125 0 723 0 0.042173333333 8 0 0 0 0
vector 54 RSVPTE4.LSR1.ppp[2].queue queueingTime:vector ETV
attr interpolationmode none
attr recordingmode vector
attr source queueingTime(packetPulled)
attr title "queueing times"
attr unit s
54	450307 75 311 723 0.022173333333 0.042173333333 3 0 0 0 0
vector 55 RSVPTE4.LSR1.ppp[2].queue incomingPacketLengths:vector ETV
attr interpolationmode none
attr recordingmode vector
attr source packetLength(packetPushStarted)
attr title "incoming packet lengths"
attr unit b
55	450382 81 311 723 0.022173333333 0.042173333333 3 448 448 1344 602112
vector 56 RSVPTE4.LSR1.ppp[2].queue incomingDataRate:vector ETV
attr interpolationmode linear
attr recordingmode vector
attr source throughput(packetPushStarted)
attr title "incoming datarate"
attr unit bps
56	18308476 4428 422927 422927 34.853853333334 50 153 0 13440 13440 180633600
vector 57 RSVPTE4.LSR1.ppp[2].queue outgoingPacketLengths:vector ETV
attr interpolationmode none
attr recordingmode vector
attr source packetLength(packetPulled)
attr title "outgoing packet lengths"
attr unit b
57	450463 81 311 723 0.022173333333 0.042173333333 3 448 448 1344 602112
vector 58 RSVPTE4.LSR1.ppp[2].queue outgoingDataRate:vector ETV
attr interpolationmode linear
attr recordingmode vector
attr source throughput(packetPulled)
attr title "outgoing datarate"
attr unit bps
58	18312904 4428 422927 422927 34.853853333334 50 153 0 13440 13440 180633600
vector 63 RSVPTE4.LSR1.ppp[2].ppp transmissionState:vector ETV
attr interpolationmode sample-hold
attr recordingmode vector
attr source transmissionStateChanged
attr title "tx state"
63	450544 160 0 743 0 0.043013333333 7 0 1 3 3
vector 64 RSVPTE4.LSR1.ppp[2].ppp txPk:vector(packetBytes) ETV
attr interpolationmode none
attr recordingmode vector(packetBytes)
attr source packetSentToLower
attr title "packets transmitted, packetBytes"
64	450704 78 311 723 0.022173333333 0.042173333333 3 63 63 189 11907
vector 65 RSVPTE4.LSR1.ppp[2].ppp rxPkOk:vector(packetBytes) ETV
attr interpolationmode none
attr recordingmode vector(packetBytes)
attr source rxPkOk
attr title "packets received OK, packetBytes"
65	450782 8565 293 30588 0.022173333333 2.992173333333 298 163 163 48574 7917562
65	4073916 77303 30687 242865 3.002173333333 28.422173333333 2543 163 163 414509 67564967
65	18317332 66867 242940 422856 28.432173333333 49.992173333333 2157 163 163 351591 57309333
vector 68 RSVPTE4.LSR1.ppp[2].ppp rcvdPkFromHl:vector(packetBytes) ETV
attr interpolationmode none
attr recordingmode vector(packetBytes)
attr source packetReceivedFromUpper
attr title "packets received from higher layer, packetBytes"
68	459347 78 311 723 0.022173333333 0.042173333333 3 56 56 168 9408
vector 69 RSVPTE4.LSR1.ppp[2].ppp passedUpPk:vector(packetBytes) ETV
attr interpolationmode none
attr recordingmode vector(packetBytes)
attr source packetSentToUpper
attr title "packets passed to higher layer, packetBytes"
69	459425 8565 293 30588 0.022173333333 2.992173333333 298 156 156 46488 7252128
69	4151219 77303 30687 242865 3.002173333333 28.422173333333 2543 156 156 396708 61886448
69	18384199 66867 242940 422856 28.432173333333 49.992173333333 2157 156 156 336492 52492752
vector 72 RSVPTE4.LSR1.ppp[3].queue queueLength:vector ETV
attr autoWarmupFilter false
attr interpolationmode sample-hold
attr recordingmode vector
attr source "warmup(atomic(constant0(packetPushEnded) + count(packetPushStarted) - count(packetPulled) - count(packetRemoved) - count(packetDropped)))"
attr title "queue length"
attr unit pk
72	467990 125 0 722 0 0.042173333333 8 0 0 0 0
vector 73 RSVPTE4.LSR1.ppp[3].queue queueBitLength:vector ETV
attr autoWarmupFilter false
attr interpolationmode sample-hold
attr recordingmode vector
attr source "warmup(atomic(constant0(packetPushEnded) + sum(packetLength(packetPushStarted)) - sum(packetLength(packetPulled)) - sum(packetLength(packetRemoved)) - sum(packetLength(packetDropped))))"
attr title "queue bit length"
attr unit b
73	468115 125 0 722 0 0.042173333333 8 0 0 0 0
vector 74 RSVPTE4.LSR1.ppp[3].queue queueingTime:vector ETV
attr interpolationmode none
attr recordingmode vector
attr source queueingTime(packetPulled)
attr title "queueing times"
attr unit s
74	468240 75 310 722 0.022173333333 0.042173333333 3 0 0 0 0
vector 75 RSVPTE4.LSR1.ppp[3].queue incomingPacketLengths:vector ETV
attr interpolationmode none
attr recordingmode vector
attr source packetLength(packetPushStarted)
attr title "incoming packet lengths"
attr unit b
75	468315 81 310 722 0.022173333333 0.042173333333 3 448 448 1344 602112
vector 76 RSVPTE4.LSR1.ppp[3].queue incomingDataRate:vector ETV
attr interpolationmode linear
attr recordingmode vector
attr source throughput(packetPushStarted)
attr title "incoming datarate"
attr unit bps
76	18451066 4428 422927 422927 34.853853333334 50 153 0 13440 13440 180633600
vector 77 RSVPTE4.LSR1.ppp[3].queue outgoingPacketLengths:vector ETV
attr interpolationmode none
attr recordingmode vector
attr source packetLength(packetPulled)
attr title "outgoing packet lengths"
attr unit b
77	468396 81 310 722 0.022173333333 0.042173333333 3 448 448 1344 602112
vector 78 RSVPTE4.LSR1.ppp[3].queue outgoingDataRate:vector ETV
attr interpolationmode linear
attr recordingmode vector
attr source throughput(packetPulled)
attr title "outgoing datarate"
attr unit bps
78	18455494 4428 422927 422927 34.853853333334 50 153 0 13440 13440 180633600
vector 83 RSVPTE4.LSR1.ppp[3].ppp transmissionState:vector ETV
attr interpolationmode sample-hold
attr recordingmode vector
attr source transmissionStateChanged
attr title "tx state"
83	468477 160 0 742 0 0.043013333333 7 0 1 3 3
vector 84 RSVPTE4.LSR1.ppp[3].ppp txPk:vector(packetBytes) ETV
attr interpolationmode none
attr recordingmode vector(packetBytes)
attr source packetSentToLower
attr title "packets transmitted, packetBytes"
84	468637 78 310 722 0.022173333333 0.042173333333 3 63 63 189 11907
vector 85 RSVPTE4.LSR1.ppp[3].ppp rxPkOk:vector(packetBytes) ETV
attr interpolationmode none
attr recordingmode vector(packetBytes)
attr source rxPkOk
attr title "packets received OK, packetBytes"
85	468715 8565 292 30587 0.022173333333 2.992173333333 298 163 163 48574 7917562
85	4228522 77303 30686 242864 3.002173333333 28.422173333333 2543 163 163 414509 67564967
85	18459922 66867 242939 422855 28.432173333333 49.992173333333 2157 163 163 351591 57309333
vector 88 RSVPTE4.LSR1.ppp[3].ppp rcvdPkFromHl:vector(packetBytes) ETV
attr interpolationmode none
attr recordingmode vector(packetBytes)
attr source packetReceivedFromUpper
attr title "packets received from higher layer, packetBytes"
88	477280 78 310 722 0.022173333333 0.042173333333 3 56 56 168 9408
vector 89 RSVPTE4.LSR1.ppp[3].ppp passedUpPk:vector(packetBytes) ETV
attr interpolationmode none
attr recordingmode vector(packetBytes)
attr source packetSentToUpper
attr title "packets passed to higher layer, packetBytes"
89	477358 8565 292 30587 0.022173333333 2.992173333333 298 156 156 46488 7252128
89	4305825 77303 30686 242864 3.002173333333 28.422173333333 2543 156 156 396708 61886448
89	18526789 66867 242939 422855 28.432173333333 49.992173333333 2157 156 156 336492 52492752
vector 92 RSVPTE4.LSR1.ppp[4].queue queueLength:vector ETV
attr autoWarmupFilter false
attr interpolationmode sample-hold
attr recordingmode vector
attr source "warmup(atomic(constant0(packetPushEnded) + count(packetPushStarted) - count(packetPulled) - count(packetRemoved) - count(packetDropped)))"
attr title "queue length"
attr unit pk
92	485923 125 0 724 0 0.042173333333 8 0 0 0 0
vector 93 RSVPTE4.LSR1.ppp[4].queue queueBitLength:vector ETV
attr autoWarmupFilter false
attr interpolationmode sample-hold
attr recordingmode vector
attr source "warmup(atomic(constant0(packetPushEnded) + sum(packetLength(packetPushStarted)) - sum(packetLength(packetPulled)) - sum(packetLength(packetRemoved)) - sum(packetLength(packetDropped))))"
attr title "queue bit length"
attr unit b
93	486048 125 0 724 0 0.042173333333 8 0 0 0 0
vector 94 RSVPTE4.LSR1.ppp[4].queue queueingTime:vector ETV
attr interpolationmode none
attr recordingmode vector
attr source queueingTime(packetPulled)
attr title "queueing times"
attr unit s
94	486173 75 312 724 0.022173333333 0.042173333333 3 0 0 0 0
vector 95 RSVPTE4.LSR1.ppp[4].queue incomingPacketLengths:vector ETV
attr interpolationmode none
attr recordingmode vector
attr source packetLength(packetPushStarted)
attr title "incoming packet lengths"
attr unit b
95	486248 81 312 724 0.022173333333 0.042173333333 3 448 448 1344 602112
vector 96 RSVPTE4.LSR1.ppp[4].queue incomingDataRate:vector ETV
attr interpolationmode linear
attr recordingmode vector
attr source throughput(packetPushStarted)
attr title "incoming datarate"
attr unit bps
96	18593656 4428 422927 422927 34.853853333334 50 153 0 13440 13440 180633600
vector 97 RSVPTE4.LSR1.ppp[4].queue outgoingPacketLengths:vector ETV
attr interpolationmode none
attr recordingmode vector
attr source packetLength(packetPulled)
attr title "outgoing packet lengths"
attr unit b
97	486329 81 312 724 0.022173333333 0.042173333333 3 448 448 1344 602112
vector 98 RSVPTE4.LSR1.ppp[4].queue outgoingDataRate:vector ETV
attr interpolationmode linear
attr recordingmode vector
attr source throughput(packetPulled)
attr title "outgoing datarate"
attr unit bps
98	18598084 4428 422927 422927 34.853853333334 50 153 0 13440 13440 180633600
vector 103 RSVPTE4.LSR1.ppp[4].ppp transmissionState:vector ETV
attr interpolationmode sample-hold
attr recordingmode vector
attr source transmissionStateChanged
attr title "tx state"
103	486410 167 0 744 0 0.043013333333 7 0 1 3 3
vector 104 RSVPTE4.LSR1.ppp[4].ppp txPk:vector(packetBytes) ETV
attr interpolationmode none
attr recordingmode vector(packetBytes)
attr source packetSentToLower
attr title "packets transmitted, packetBytes"
104	486577 81 312 724 0.022173333333 0.042173333333 3 63 63 189 11907
vector 105 RSVPTE4.LSR1.ppp[4].ppp rxPkOk:vector(packetBytes) ETV
attr interpolationmode none
attr recordingmode vector(packetBytes)
attr source rxPkOk
attr title "packets received OK, packetBytes"
105	486658 8863 294 30589 0.022173333333 2.992173333333 298 163 163 48574 7917562
105	4383128 79846 30688 242866 3.002173333333 28.422173333333 2543 163 163 414509 67564967
105	18602512 69024 242941 422857 28.432173333333 49.992173333333 2157 163 163 351591 57309333
vector 108 RSVPTE4.LSR1.ppp[4].ppp rcvdPkFromHl:vector(packetBytes) ETV
attr interpolationmode none
attr recordingmode vector(packetBytes)
attr source packetReceivedFromUpper
attr title "packets received from higher layer, packetBytes"
108	495521 81 312 724 0.022173333333 0.042173333333 3 56 56 168 9408
vector 109 RSVPTE4.LSR1.ppp[4].ppp passedUpPk:vector(packetBytes) ETV
attr interpolationmode none
attr recordingmode vector(packetBytes)
attr source packetSentToUpper
attr title "packets passed to higher layer, packetBytes"
109	495602 8863 294 30589 0.022173333333 2.992173333333 298 156 156 46488 7252128
109	4462974 79846 30688 242866 3.002173333333 28.422173333333 2543 156 156 396708 61886448
109	18671536 69024 242941 422857 28.432173333333 49.992173333333 2157 156 156 336492 52492752
vector 124 RSVPTE4.LSR2.ppp[0].queue queueLength:vector ETV
attr autoWarmupFilter false
attr interpolationmode sample-hold
attr recordingmode vector
attr source "warmup(atomic(constant0(packetPushEnded) + count(packetPushStarted) - count(packetPulled) - count(packetRemoved) - count(packetDropped)))"
attr title "queue length"
attr unit pk
124	504465 1581 0 30615 0 2.99508541103 64 0 3 26 48
124	4542820 3866 32277 242631 3.19508541103 28.39508541103 137 0 0 0 0
124	18740560 3344 244293 422883 28.59508541103 49.99508541103 116 0 0 0 0
vector 125 RSVPTE4.LSR2.ppp[0].queue queueBitLength:vector ETV
attr autoWarmupFilter false
attr interpolationmode sample-hold
attr recordingmode vector
attr source "warmup(atomic(constant0(packetPushEnded) + sum(packetLength(packetPushStarted)) - sum(packetLength(packetPulled)) - sum(packetLength(packetRemoved)) - sum(packetLength(packetDropped))))"
attr title "queue bit length"
attr unit b
125	506046 1624 0 30615 0 2.99508541103 64 0 10528 32152 157132224
125	4546686 3866 32277 242631 3.19508541103 28.39508541103 137 0 0 0 0
125	18743904 3344 244293 422883 28.59508541103 49.99508541103 116 0 0 0 0
vector 126 RSVPTE4.LSR2.ppp[0].queue queueingTime:vector ETV
attr interpolationmode none
attr recordingmode vector
attr source queueingTime(packetPulled)
attr title "queueing times"
attr unit s
126	507670 1364 123 30615 0.013091281637 2.99508541103 47 0 0.017344760484 0.045949164962 0.00041191430801491
126	4550552 3866 32277 242631 3.19508541103 28.39508541103 137 0 0 0 0
126	18747248 3344 244293 422883 28.59508541103 49.99508541103 116 0 0 0 0
vector 127 RSVPTE4.LSR2.ppp[0].queue incomingPacketLengths:vector ETV
attr interpolationmode none
attr recordingmode vector
attr source packetLength(packetPushStarted)
attr title "incoming packet lengths"
attr unit b
127	509034 1331 123 30615 0.013091281637 2.99508541103 47 168 10528 42896 156189824
127	4554418 4140 32277 242631 3.19508541103 28.39508541103 137 168 216 23496 4051008
127	18750592 3576 244293 422883 28.59508541103 49.99508541103 116 168 216 19872 3421440
vector 128 RSVPTE4.LSR2.ppp[0].queue incomingDataRate:vector ETV
attr interpolationmode linear
attr recordingmode vector
attr source throughput(packetPushStarted)
attr title "incoming datarate"
attr unit bps
128	4558558 4799 112428 242631 12.79508541103 28.39508541103 157 -2367.7102551455 6000 139952.28974485 322463651.85232
128	18754168 6619 244293 422927 28.49508541103 50 217 0 34183.937054659 232903.93705466 1606071152.5569
vector 129 RSVPTE4.LSR2.ppp[0].queue outgoingPacketLengths:vector ETV
attr interpolationmode none
attr recordingmode vector
attr source packetLength(packetPulled)
attr title "outgoing packet lengths"
attr unit b
129	510365 1332 123 30615 0.013091281637 2.99508541103 47 168 10528 42896 156189824
129	4563357 4140 32277 242631 3.19508541103 28.39508541103 137 168 216 23496 4051008
129	18760787 3576 244293 422883 28.59508541103 49.99508541103 116 168 216 19872 3421440
vector 130 RSVPTE4.LSR2.ppp[0].queue outgoingDataRate:vector ETV
attr interpolationmode linear
attr recordingmode vector
attr source throughput(packetPulled)
attr title "outgoing datarate"
attr unit bps
130	4567497 4799 112428 242631 12.79508541103 28.39508541103 157 -2367.7102551455 6000 139952.28974485 322463651.85232
130	18764363 6619 244293 422927 28.49508541103 50 217 0 34183.937054659 232903.93705466 1606071152.5569
vector 135 RSVPTE4.LSR2.ppp[0].ppp transmissionState:vector ETV
attr interpolationmode sample-hold
attr recordingmode vector
attr source transmissionStateChanged
attr title "tx state"
135	511697 2484 0 30620 0 2.995458744363 95 0 1 47 47
135	4572296 7894 32277 242636 3.19508541103 28.395458744363 274 0 1 137 137
135	18770982 6824 244293 422888 28.59508541103 49.995458744363 232 0 1 116 116